                         Program Version 4.2.1 -  RELEASE  -
|  1> ! RKS b3lyp_g def2-svp grid6 nofinalgrid
|  2> ! xyzfile
|  3> %maxcore 1000
|  4>
|  5> *xyz 0 1
|  6>  C                 -4.82378852   -1.56387663    0.00000000
|  7>  H                 -4.46713410   -2.57268663    0.00000000
|  8>  H                 -4.46711568   -1.05947844   -0.87365150
|  9>  H                 -5.89378852   -1.56386344    0.00000000
| 10>  C                 -4.31044630   -0.83792036    1.25740497
| 11>  H                 -4.66550265    0.17145273    1.25642745
| 12>  H                 -4.66871541   -1.34118879    2.13105486
| 13>  C                 -2.77044891   -0.84037671    1.25881364
| 14>  H                 -2.41218042   -0.33743483    0.38497547
| 15>  H                 -2.41539267   -1.84974940    1.26016738
| 16>  C                 -2.25710642   -0.11395139    2.51594759
| 17>  H                 -2.61544323   -0.61684569    3.38978513
| 18>  H                 -2.61209480    0.89544512    2.51455266
| 19>  C                 -0.71710925   -0.11651080    2.51741591
| 20>  H                 -0.35877330    0.38637575    1.64357355
| 21>  H                 -0.36212065   -1.12590722    2.51881957
| 22>  C                 -0.20376674    0.60992522    3.77454365
| 23>  H                 -0.56210498    0.10703940    4.64838548
| 24>  H                 -0.55875366    1.61932223    3.77313924
| 25>  C                  1.33623043    0.60736361    3.77601325
| 26>  H                  1.69456782    1.11025067    2.90217178
| 27>  H                  1.69121758   -0.40203332    3.77741602
| 28>  C                  1.84957293    1.33379742    5.03314227
| 29>  H                  1.49123612    0.83090904    5.90698322
| 30>  H                  2.91957097    1.33201912    5.03416247
| 31>  H                  1.49458457    2.34319392    5.03174052
| 32> *
| 33>
| 34> $new_job
| 35> ! RKS def2-svp grid6 nofinalgrid
| 36> ! readints
| 37> !cim def2-svp/c
| 38> #%scf maxiter 1 end
| 39> %maxcore 1000
| 40> %method
| 41>  Functional b3lyp_g
| 42>  ACM 0.8033, 0.2107, 0.6789
| 43>  ScalLDAC = 0.6789
| 44>  ScalMP2C = 0.3211
| 45> end
| 46> %mp2
| 47>  ri true
| 48> end
| 49> %cim
| 50>  cimthresh 0.003
| 51> end
| 52>
| 53> *xyzfile 0 1
| 54>
| 55>
| 56>
| 57>                          ****END OF INPUT****
 Total Charge           Charge          ....    0
 Multiplicity           Mult            ....    1
 Number of Electrons    NEL             ....   66
FINAL SINGLE POINT ENERGY      -315.464829798664

DIPOLE MOMENT
-------------
                                X             Y             Z
Electronic contribution:      0.00000      -0.00024       0.00014
Nuclear contribution   :     -0.00000       0.00024      -0.00014
                        -----------------------------------------
Total Dipole Moment    :     -0.00000       0.00000      -0.00000
                        -----------------------------------------
Magnitude (a.u.)       :      0.00001
Magnitude (Debye)      :      0.00001

Rotational constants in cm-1:     0.349628     0.016837     0.016450
Rotational constants in MHz : 10481.591983   504.772281   493.149909

CARTESIAN COORDINATES (ANGSTROEM)
---------------------------------
  C     -4.823789   -1.563877    0.000000
  H     -4.467134   -2.572687    0.000000
  H     -4.467116   -1.059478   -0.873651
  H     -5.893789   -1.563863    0.000000
  C     -4.310446   -0.837920    1.257405
  H     -4.665503    0.171453    1.256427
  H     -4.668715   -1.341189    2.131055
  C     -2.770449   -0.840377    1.258814
  H     -2.412180   -0.337435    0.384975
  H     -2.415393   -1.849749    1.260167
  C     -2.257106   -0.113951    2.515948
  H     -2.615443   -0.616846    3.389785
  H     -2.612095    0.895445    2.514553
  C     -0.717109   -0.116511    2.517416
  H     -0.358773    0.386376    1.643574
  H     -0.362121   -1.125907    2.518820
  C     -0.203767    0.609925    3.774544
  H     -0.562105    0.107039    4.648385
  H     -0.558754    1.619322    3.773139
  C      1.336230    0.607364    3.776013
  H      1.694568    1.110251    2.902172
  H      1.691218   -0.402033    3.777416
  C      1.849573    1.333797    5.033142
  H      1.491236    0.830909    5.906983
  H      2.919571    1.332019    5.034162
  H      1.494585    2.343194    5.031741

 Multiplicity           Mult            ....    1
 Number of Electrons    NEL             ....   66
 Basis Dimension        Dim             ....  202

ORBITAL ENERGIES
----------------

  NO   OCC          E(Eh)            E(eV)
   0   2.0000     -10.971372      -298.5462
   1   2.0000     -10.971371      -298.5462
   2   2.0000     -10.969316      -298.4903
   3   2.0000     -10.969264      -298.4888
   4   2.0000     -10.968853      -298.4777
   5   2.0000     -10.968496      -298.4679
   6   2.0000     -10.966514      -298.4140
   7   2.0000     -10.966513      -298.4140
   8   2.0000      -1.026723       -27.9386
   9   2.0000      -0.998016       -27.1574
  10   2.0000      -0.951565       -25.8934
  11   2.0000      -0.891130       -24.2489
  12   2.0000      -0.822839       -22.3906
  13   2.0000      -0.763653       -20.7801
  14   2.0000      -0.748967       -20.3804
  15   2.0000      -0.742303       -20.1991
  16   2.0000      -0.636239       -17.3130
  17   2.0000      -0.610742       -16.6191
  18   2.0000      -0.572292       -15.5728
  19   2.0000      -0.569442       -15.4953
  20   2.0000      -0.550579       -14.9820
  21   2.0000      -0.532646       -14.4940
  22   2.0000      -0.528308       -14.3760
  23   2.0000      -0.508914       -13.8483
  24   2.0000      -0.488282       -13.2868
  25   2.0000      -0.471826       -12.8390
  26   2.0000      -0.461665       -12.5626
  27   2.0000      -0.458303       -12.4710
  28   2.0000      -0.451366       -12.2823
  29   2.0000      -0.450980       -12.2718
  30   2.0000      -0.449386       -12.2284
  31   2.0000      -0.440893       -11.9973
  32   2.0000      -0.387531       -10.5453
  33   0.0000       0.134760         3.6670
  34   0.0000       0.144635         3.9357
  35   0.0000       0.162895         4.4326
  36   0.0000       0.167463         4.5569
  37   0.0000       0.169151         4.6028

MULLIKEN ATOMIC CHARGES
-----------------------
   0 C :    0.009963
   1 H :    0.016956
   2 H :    0.016992
   3 H :    0.020579
   4 C :   -0.069162
   5 H :    0.016156
   6 H :    0.016156
   7 C :   -0.050041
   8 H :    0.011613
   9 H :    0.011622
  10 C :   -0.021455
  11 H :    0.010309
  12 H :    0.010312
  13 C :   -0.021455
  14 H :    0.010311
  15 H :    0.010310
  16 C :   -0.050041
  17 H :    0.011617
  18 H :    0.011618
  19 C :   -0.069163
  20 H :    0.016156
  21 H :    0.016156
  22 C :    0.009965
  23 H :    0.016974
  24 H :    0.020578
  25 H :    0.016974
Sum of atomic charges:   -0.0000000

LOEWDIN ATOMIC CHARGES
----------------------
   0 C :   -0.038931
   1 H :    0.013953
   2 H :    0.013961
   3 H :    0.013816
   4 C :   -0.023759
   5 H :    0.010384
   6 H :    0.010379
   7 C :   -0.020258
   8 H :    0.009742
   9 H :    0.009740
  10 C :   -0.018654
  11 H :    0.009814
  12 H :    0.009813
  13 C :   -0.018654
  14 H :    0.009814
  15 H :    0.009813
  16 C :   -0.020258
  17 H :    0.009741
  18 H :    0.009741
  19 C :   -0.023759
  20 H :    0.010382
  21 H :    0.010382
  22 C :   -0.038930
  23 H :    0.013957
  24 H :    0.013815
  25 H :    0.013957

  Mayer bond orders larger than 0.100000
B(  0-C ,  1-H ) :   0.9817 B(  0-C ,  2-H ) :   0.9817 B(  0-C ,  3-H ) :   0.9820
B(  0-C ,  4-C ) :   1.0643 B(  4-C ,  5-H ) :   0.9676 B(  4-C ,  6-H ) :   0.9676
B(  4-C ,  7-C ) :   1.0463 B(  7-C ,  8-H ) :   0.9653 B(  7-C ,  9-H ) :   0.9652
B(  7-C , 10-C ) :   1.0531 B( 10-C , 11-H ) :   0.9628 B( 10-C , 12-H ) :   0.9628
B( 10-C , 13-C ) :   1.0557 B( 13-C , 14-H ) :   0.9628 B( 13-C , 15-H ) :   0.9628
B( 13-C , 16-C ) :   1.0531 B( 16-C , 17-H ) :   0.9653 B( 16-C , 18-H ) :   0.9653
B( 16-C , 19-C ) :   1.0463 B( 19-C , 20-H ) :   0.9676 B( 19-C , 21-H ) :   0.9676
B( 19-C , 22-C ) :   1.0643 B( 22-C , 23-H ) :   0.9817 B( 22-C , 24-H ) :   0.9820
B( 22-C , 25-H ) :   0.9817

FINAL SINGLE POINT ENERGY      -314.674703445186
                             ****ORCA TERMINATED NORMALLY****
TOTAL RUN TIME: 0 days 0 hours 1 minutes 36 seconds 204 msec
